<?xml version="1.0" encoding="UTF-8"?>

<!-- generated on 10/14/20 21:27:57 by Eclipse SUMO GUI Version 1.7.0
<configuration xmlns:xsi="http://www.w3.org/2001/XMLSchema-instance" xsi:noNamespaceSchemaLocation="http://sumo.dlr.de/xsd/sumoConfiguration.xsd">

    <input>
        <net-file value="D:\SumoTest\Projects\BDTSimulator\sublane_model\net.net.xml"/>
        <route-files value="D:\SumoTest\Projects\BDTSimulator\sublane_model\input_routes.rou.xml"/>
    </input>

    <output>
        <netstate-dump value="D:\SumoTest\Projects\BDTSimulator\sublane_model\out.xml"/>
    </output>

    <processing>
        <lateral-resolution value="0.64"/>
    </processing>

    <report>
        <xml-validation value="never"/>
        <xml-validation.routes value="never"/>
        <no-step-log value="true"/>
    </report>

    <gui_only>
        <gui-settings-file value="D:\SumoTest\Projects\BDTSimulator\sublane_model\sublane.settings.xml"/>
    </gui_only>

</configuration>
-->

<netstate xmlns:xsi="http://www.w3.org/2001/XMLSchema-instance" xsi:noNamespaceSchemaLocation="http://sumo.dlr.de/xsd/netstate_file.xsd">
    <timestep time="0.00">
        <edge id="beg">
            <lane id="beg_0"/>
            <lane id="beg_1">
                <vehicle id="0" pos="5.10" speed="0.00" posLat="0.00" speedLat="0.00"/>
            </lane>
            <lane id="beg_2"/>
            <person id="person0" pos="0.00" angle="90.00" stage="walking"/>
            <person id="person1" pos="0.00" angle="90.00" stage="walking"/>
            <person id="person2" pos="0.00" angle="90.00" stage="walking"/>
            <person id="person3" pos="0.00" angle="90.00" stage="walking"/>
            <person id="person4" pos="0.00" angle="90.00" stage="walking"/>
        </edge>
    </timestep>
    <timestep time="1.00">
        <edge id="beg">
            <lane id="beg_0"/>
            <lane id="beg_1">
                <vehicle id="0" pos="6.10" speed="1.00" posLat="0.00" speedLat="0.00"/>
            </lane>
            <lane id="beg_2"/>
            <person id="person2" pos="0.00" angle="90.00" stage="walking"/>
            <person id="person3" pos="0.00" angle="90.00" stage="walking"/>
            <person id="person4" pos="0.00" angle="90.00" stage="walking"/>
            <person id="person1" pos="0.54" angle="90.00" stage="walking"/>
            <person id="person0" pos="1.21" angle="90.00" stage="walking"/>
        </edge>
    </timestep>
    <timestep time="2.00">
        <edge id="beg">
            <lane id="beg_0"/>
            <lane id="beg_1">
                <vehicle id="0" pos="8.10" speed="2.00" posLat="0.00" speedLat="0.00"/>
            </lane>
            <lane id="beg_2"/>
            <person id="person4" pos="0.00" angle="90.00" stage="walking"/>
            <person id="person3" pos="0.64" angle="90.00" stage="walking"/>
            <person id="person2" pos="1.24" angle="90.00" stage="walking"/>
            <person id="person1" pos="1.76" angle="90.00" stage="walking"/>
            <person id="person0" pos="2.67" angle="90.00" stage="walking"/>
        </edge>
    </timestep>
    <timestep time="3.00">
        <edge id="beg">
            <lane id="beg_0"/>
            <lane id="beg_1">
                <vehicle id="0" pos="11.10" speed="3.00" posLat="0.00" speedLat="0.00"/>
            </lane>
            <lane id="beg_2"/>
            <person id="person4" pos="1.34" angle="90.00" stage="walking"/>
            <person id="person3" pos="1.72" angle="90.00" stage="walking"/>
            <person id="person2" pos="2.42" angle="90.00" stage="walking"/>
            <person id="person1" pos="3.00" angle="90.00" stage="walking"/>
            <person id="person0" pos="4.14" angle="90.00" stage="walking"/>
        </edge>
    </timestep>
    <timestep time="4.00">
        <edge id="beg">
            <lane id="beg_0"/>
            <lane id="beg_1">
                <vehicle id="1" pos="5.10" speed="0.00" posLat="0.00" speedLat="0.00"/>
                <vehicle id="0" pos="15.10" speed="4.00" posLat="0.00" speedLat="0.00"/>
            </lane>
            <lane id="beg_2"/>
            <person id="person4" pos="2.65" angle="90.00" stage="walking"/>
            <person id="person3" pos="2.84" angle="90.00" stage="walking"/>
            <person id="person2" pos="3.49" angle="90.00" stage="walking"/>
            <person id="person1" pos="4.41" angle="90.00" stage="walking"/>
            <person id="person0" pos="5.53" angle="90.00" stage="walking"/>
        </edge>
    </timestep>
    <timestep time="5.00">
        <edge id="beg">
            <lane id="beg_0"/>
            <lane id="beg_1">
                <vehicle id="1" pos="6.10" speed="1.00" posLat="0.00" speedLat="0.00"/>
                <vehicle id="0" pos="20.10" speed="5.00" posLat="0.00" speedLat="0.00"/>
            </lane>
            <lane id="beg_2"/>
            <person id="person3" pos="3.88" angle="90.00" stage="walking"/>
            <person id="person4" pos="3.88" angle="90.00" stage="walking"/>
            <person id="person2" pos="4.72" angle="90.00" stage="walking"/>
            <person id="person1" pos="5.69" angle="90.00" stage="walking"/>
            <person id="person0" pos="6.99" angle="90.00" stage="walking"/>
        </edge>
    </timestep>
    <timestep time="6.00">
        <edge id="beg">
            <lane id="beg_0"/>
            <lane id="beg_1">
                <vehicle id="1" pos="8.10" speed="2.00" posLat="0.00" speedLat="0.00"/>
                <vehicle id="0" pos="26.10" speed="6.00" posLat="0.00" speedLat="0.00"/>
            </lane>
            <lane id="beg_2"/>
            <person id="person3" pos="5.01" angle="90.00" stage="walking"/>
            <person id="person4" pos="5.23" angle="90.00" stage="walking"/>
            <person id="person2" pos="5.92" angle="90.00" stage="walking"/>
            <person id="person1" pos="6.87" angle="90.00" stage="walking"/>
            <person id="person0" pos="8.22" angle="90.00" stage="walking"/>
        </edge>
    </timestep>
    <timestep time="7.00">
        <edge id="beg">
            <lane id="beg_0"/>
            <lane id="beg_1">
                <vehicle id="1" pos="11.10" speed="3.00" posLat="0.00" speedLat="0.00"/>
                <vehicle id="0" pos="33.10" speed="7.00" posLat="0.00" speedLat="0.00"/>
            </lane>
            <lane id="beg_2"/>
            <person id="person3" pos="5.97" angle="90.00" stage="walking"/>
            <person id="person4" pos="6.70" angle="90.00" stage="walking"/>
            <person id="person2" pos="7.02" angle="90.00" stage="walking"/>
            <person id="person1" pos="8.22" angle="90.00" stage="walking"/>
            <person id="person0" pos="9.68" angle="90.00" stage="walking"/>
        </edge>
    </timestep>
    <timestep time="8.00">
        <edge id="beg">
            <lane id="beg_0"/>
            <lane id="beg_1">
                <vehicle id="2" pos="5.10" speed="0.00" posLat="0.00" speedLat="0.00"/>
                <vehicle id="1" pos="15.10" speed="4.00" posLat="1.00" speedLat="1.00"/>
                <vehicle id="0" pos="41.10" speed="8.00" posLat="0.00" speedLat="0.00"/>
            </lane>
            <lane id="beg_2"/>
            <person id="person3" pos="7.13" angle="90.00" stage="walking"/>
            <person id="person4" pos="8.17" angle="90.00" stage="walking"/>
            <person id="person2" pos="8.24" angle="90.00" stage="walking"/>
            <person id="person1" pos="9.45" angle="90.00" stage="walking"/>
            <person id="person0" pos="11.15" angle="90.00" stage="walking"/>
        </edge>
    </timestep>
    <timestep time="9.00">
        <edge id="beg">
            <lane id="beg_0"/>
            <lane id="beg_1">
                <vehicle id="2" pos="6.10" speed="1.00" posLat="0.00" speedLat="0.00"/>
                <vehicle id="0" pos="50.10" speed="9.00" posLat="0.00" speedLat="0.00"/>
            </lane>
            <lane id="beg_2">
                <vehicle id="1" pos="20.10" speed="5.00" posLat="-1.20" speedLat="1.00"/>
            </lane>
            <person id="person3" pos="8.28" angle="90.00" stage="walking"/>
            <person id="person2" pos="9.47" angle="90.00" stage="walking"/>
            <person id="person4" pos="9.62" angle="90.00" stage="walking"/>
            <person id="person1" pos="10.61" angle="90.00" stage="walking"/>
            <person id="person0" pos="12.50" angle="90.00" stage="walking"/>
        </edge>
    </timestep>
    <timestep time="10.00">
        <edge id="beg">
            <lane id="beg_0"/>
            <lane id="beg_1">
                <vehicle id="2" pos="8.10" speed="2.00" posLat="0.00" speedLat="0.00"/>
                <vehicle id="0" pos="60.10" speed="10.00" posLat="0.00" speedLat="0.00"/>
            </lane>
            <lane id="beg_2">
                <vehicle id="1" pos="26.10" speed="6.00" posLat="-0.20" speedLat="1.00"/>
            </lane>
            <person id="person3" pos="9.32" angle="90.00" stage="walking"/>
            <person id="person2" pos="10.75" angle="90.00" stage="walking"/>
            <person id="person4" pos="10.89" angle="90.00" stage="walking"/>
            <person id="person1" pos="11.97" angle="90.00" stage="walking"/>
            <person id="person0" pos="13.80" angle="90.00" stage="walking"/>
        </edge>
    </timestep>
    <timestep time="11.00">
        <edge id="beg">
            <lane id="beg_0"/>
            <lane id="beg_1">
                <vehicle id="2" pos="11.10" speed="3.00" posLat="0.00" speedLat="0.00"/>
                <vehicle id="0" pos="71.10" speed="11.00" posLat="0.00" speedLat="0.00"/>
            </lane>
            <lane id="beg_2">
                <vehicle id="1" pos="33.10" speed="7.00" posLat="0.00" speedLat="0.20"/>
            </lane>
            <person id="person3" pos="10.28" angle="90.00" stage="walking"/>
            <person id="person2" pos="11.81" angle="90.00" stage="walking"/>
            <person id="person4" pos="12.19" angle="90.00" stage="walking"/>
            <person id="person1" pos="13.23" angle="90.00" stage="walking"/>
            <person id="person0" pos="15.06" angle="90.00" stage="walking"/>
        </edge>
    </timestep>
    <timestep time="12.00">
        <edge id="beg">
            <lane id="beg_0"/>
            <lane id="beg_1">
                <vehicle id="3" pos="5.10" speed="0.00" posLat="0.00" speedLat="0.00"/>
                <vehicle id="2" pos="15.10" speed="4.00" posLat="1.00" speedLat="1.00"/>
                <vehicle id="0" pos="83.10" speed="12.00" posLat="0.00" speedLat="0.00"/>
            </lane>
            <lane id="beg_2">
                <vehicle id="1" pos="41.10" speed="8.00" posLat="0.00" speedLat="0.00"/>
            </lane>
            <person id="person3" pos="11.24" angle="90.00" stage="walking"/>
            <person id="person2" pos="13.07" angle="90.00" stage="walking"/>
            <person id="person4" pos="13.53" angle="90.00" stage="walking"/>
            <person id="person1" pos="14.52" angle="90.00" stage="walking"/>
            <person id="person0" pos="16.45" angle="90.00" stage="walking"/>
        </edge>
    </timestep>
    <timestep time="13.00">
        <edge id="beg">
            <lane id="beg_0"/>
            <lane id="beg_1">
                <vehicle id="3" pos="6.10" speed="1.00" posLat="0.00" speedLat="0.00"/>
                <vehicle id="0" pos="96.10" speed="13.00" posLat="0.00" speedLat="0.00"/>
            </lane>
            <lane id="beg_2">
                <vehicle id="2" pos="20.10" speed="5.00" posLat="-1.20" speedLat="1.00"/>
                <vehicle id="1" pos="50.10" speed="9.00" posLat="0.00" speedLat="0.00"/>
            </lane>
            <person id="person3" pos="12.36" angle="90.00" stage="walking"/>
            <person id="person2" pos="14.36" angle="90.00" stage="walking"/>
            <person id="person4" pos="15.00" angle="90.00" stage="walking"/>
            <person id="person1" pos="15.77" angle="90.00" stage="walking"/>
            <person id="person0" pos="17.86" angle="90.00" stage="walking"/>
        </edge>
    </timestep>
    <timestep time="14.00">
        <edge id="beg">
            <lane id="beg_0"/>
            <lane id="beg_1">
                <vehicle id="3" pos="8.10" speed="2.00" posLat="0.00" speedLat="0.00"/>
                <vehicle id="0" pos="109.13" speed="13.03" posLat="0.00" speedLat="0.00"/>
            </lane>
            <lane id="beg_2">
                <vehicle id="2" pos="26.10" speed="6.00" posLat="-0.20" speedLat="1.00"/>
                <vehicle id="1" pos="60.10" speed="10.00" posLat="0.00" speedLat="0.00"/>
            </lane>
            <person id="person3" pos="13.32" angle="90.00" stage="walking"/>
            <person id="person2" pos="15.62" angle="90.00" stage="walking"/>
            <person id="person4" pos="16.50" angle="90.00" stage="walking"/>
            <person id="person1" pos="16.93" angle="90.00" stage="walking"/>
            <person id="person0" pos="19.18" angle="90.00" stage="walking"/>
        </edge>
    </timestep>
    <timestep time="15.00">
        <edge id="beg">
            <lane id="beg_0"/>
            <lane id="beg_1">
                <vehicle id="3" pos="11.10" speed="3.00" posLat="0.00" speedLat="0.00"/>
                <vehicle id="0" pos="122.17" speed="13.03" posLat="0.00" speedLat="0.00"/>
            </lane>
            <lane id="beg_2">
                <vehicle id="2" pos="33.10" speed="7.00" posLat="0.00" speedLat="0.20"/>
                <vehicle id="1" pos="71.10" speed="11.00" posLat="0.00" speedLat="0.00"/>
            </lane>
            <person id="person3" pos="14.46" angle="90.00" stage="walking"/>
            <person id="person2" pos="16.77" angle="90.00" stage="walking"/>
            <person id="person4" pos="17.99" angle="90.00" stage="walking"/>
            <person id="person1" pos="18.26" angle="90.00" stage="walking"/>
            <person id="person0" pos="20.56" angle="90.00" stage="walking"/>
        </edge>
    </timestep>
    <timestep time="16.00">
        <edge id="beg">
            <lane id="beg_0"/>
            <lane id="beg_1">
                <vehicle id="4" pos="5.10" speed="0.00" posLat="0.00" speedLat="0.00"/>
                <vehicle id="3" pos="15.10" speed="4.00" posLat="0.00" speedLat="0.00"/>
                <vehicle id="0" pos="135.20" speed="13.03" posLat="0.00" speedLat="0.00"/>
            </lane>
            <lane id="beg_2">
                <vehicle id="2" pos="41.10" speed="8.00" posLat="0.00" speedLat="0.00"/>
                <vehicle id="1" pos="83.10" speed="12.00" posLat="0.00" speedLat="0.00"/>
            </lane>
            <person id="person3" pos="15.57" angle="90.00" stage="walking"/>
            <person id="person2" pos="17.89" angle="90.00" stage="walking"/>
            <person id="person4" pos="19.48" angle="90.00" stage="walking"/>
            <person id="person1" pos="19.68" angle="90.00" stage="walking"/>
            <person id="person0" pos="21.97" angle="90.00" stage="walking"/>
        </edge>
    </timestep>
    <timestep time="17.00">
        <edge id="beg">
            <lane id="beg_0"/>
            <lane id="beg_1">
                <vehicle id="4" pos="6.10" speed="1.00" posLat="0.00" speedLat="0.00"/>
                <vehicle id="3" pos="20.10" speed="5.00" posLat="0.00" speedLat="0.00"/>
                <vehicle id="0" pos="148.23" speed="13.03" posLat="0.00" speedLat="0.00"/>
            </lane>
            <lane id="beg_2">
                <vehicle id="2" pos="50.10" speed="9.00" posLat="0.00" speedLat="0.00"/>
                <vehicle id="1" pos="96.10" speed="13.00" posLat="0.00" speedLat="0.00"/>
            </lane>
            <person id="person3" pos="16.61" angle="90.00" stage="walking"/>
            <person id="person2" pos="19.08" angle="90.00" stage="walking"/>
            <person id="person4" pos="20.79" angle="90.00" stage="walking"/>
            <person id="person1" pos="21.05" angle="90.00" stage="walking"/>
            <person id="person0" pos="23.36" angle="90.00" stage="walking"/>
        </edge>
    </timestep>
    <timestep time="18.00">
        <edge id="beg">
            <lane id="beg_0"/>
            <lane id="beg_1">
                <vehicle id="4" pos="8.10" speed="2.00" posLat="1.00" speedLat="1.00"/>
                <vehicle id="3" pos="26.10" speed="6.00" posLat="0.00" speedLat="0.00"/>
                <vehicle id="0" pos="161.27" speed="13.03" posLat="0.00" speedLat="0.00"/>
            </lane>
            <lane id="beg_2">
                <vehicle id="2" pos="60.10" speed="10.00" posLat="0.00" speedLat="0.00"/>
                <vehicle id="1" pos="110.10" speed="14.00" posLat="0.00" speedLat="0.00"/>
            </lane>
            <person id="person3" pos="17.70" angle="90.00" stage="walking"/>
            <person id="person2" pos="20.23" angle="90.00" stage="walking"/>
            <person id="person4" pos="22.05" angle="90.00" stage="walking"/>
            <person id="person1" pos="22.34" angle="90.00" stage="walking"/>
            <person id="person0" pos="24.72" angle="90.00" stage="walking"/>
        </edge>
    </timestep>
    <timestep time="19.00">
        <edge id="beg">
            <lane id="beg_0"/>
            <lane id="beg_1">
                <vehicle id="3" pos="33.10" speed="7.00" posLat="0.00" speedLat="0.00"/>
                <vehicle id="0" pos="174.30" speed="13.03" posLat="0.00" speedLat="0.00"/>
            </lane>
            <lane id="beg_2">
                <vehicle id="4" pos="11.10" speed="3.00" posLat="-1.20" speedLat="1.00"/>
                <vehicle id="2" pos="71.10" speed="11.00" posLat="0.00" speedLat="0.00"/>
                <vehicle id="1" pos="124.13" speed="14.03" posLat="0.00" speedLat="0.00"/>
            </lane>
            <person id="person3" pos="18.87" angle="90.00" stage="walking"/>
            <person id="person2" pos="21.45" angle="90.00" stage="walking"/>
            <person id="person1" pos="23.49" angle="90.00" stage="walking"/>
            <person id="person4" pos="23.56" angle="90.00" stage="walking"/>
            <person id="person0" pos="26.08" angle="90.00" stage="walking"/>
        </edge>
    </timestep>
    <timestep time="20.00">
        <edge id="beg">
            <lane id="beg_0"/>
            <lane id="beg_1">
                <vehicle id="5" pos="5.10" speed="0.00" posLat="0.00" speedLat="0.00"/>
                <vehicle id="3" pos="41.10" speed="8.00" posLat="0.00" speedLat="0.00"/>
                <vehicle id="0" pos="187.33" speed="13.03" posLat="0.00" speedLat="0.00"/>
            </lane>
            <lane id="beg_2">
                <vehicle id="4" pos="15.10" speed="4.00" posLat="-0.20" speedLat="1.00"/>
                <vehicle id="2" pos="83.10" speed="12.00" posLat="0.00" speedLat="0.00"/>
                <vehicle id="1" pos="138.17" speed="14.03" posLat="0.00" speedLat="0.00"/>
            </lane>
            <person id="person3" pos="19.95" angle="90.00" stage="walking"/>
            <person id="person2" pos="22.63" angle="90.00" stage="walking"/>
            <person id="person1" pos="24.65" angle="90.00" stage="walking"/>
            <person id="person4" pos="24.88" angle="90.00" stage="walking"/>
            <person id="person0" pos="27.30" angle="90.00" stage="walking"/>
        </edge>
    </timestep>
    <timestep time="21.00">
        <edge id="beg">
            <lane id="beg_0"/>
            <lane id="beg_1">
                <vehicle id="5" pos="6.10" speed="1.00" posLat="0.00" speedLat="0.00"/>
                <vehicle id="3" pos="50.10" speed="9.00" posLat="0.00" speedLat="0.00"/>
                <vehicle id="0" pos="200.36" speed="13.03" posLat="0.00" speedLat="0.00"/>
            </lane>
            <lane id="beg_2">
                <vehicle id="4" pos="20.10" speed="5.00" posLat="0.00" speedLat="0.20"/>
                <vehicle id="2" pos="96.10" speed="13.00" posLat="0.00" speedLat="0.00"/>
                <vehicle id="1" pos="152.20" speed="14.03" posLat="0.00" speedLat="0.00"/>
            </lane>
            <person id="person3" pos="20.91" angle="90.00" stage="walking"/>
            <person id="person2" pos="23.78" angle="90.00" stage="walking"/>
            <person id="person1" pos="25.84" angle="90.00" stage="walking"/>
            <person id="person4" pos="26.26" angle="90.00" stage="walking"/>
            <person id="person0" pos="28.56" angle="90.00" stage="walking"/>
        </edge>
    </timestep>
    <timestep time="22.00">
        <edge id="beg">
            <lane id="beg_0"/>
            <lane id="beg_1">
                <vehicle id="5" pos="8.10" speed="2.00" posLat="0.00" speedLat="0.00"/>
                <vehicle id="3" pos="60.10" speed="10.00" posLat="0.00" speedLat="0.00"/>
                <vehicle id="0" pos="213.40" speed="13.03" posLat="0.00" speedLat="0.00"/>
            </lane>
            <lane id="beg_2">
                <vehicle id="4" pos="26.10" speed="6.00" posLat="0.00" speedLat="0.00"/>
                <vehicle id="2" pos="110.10" speed="14.00" posLat="0.00" speedLat="0.00"/>
                <vehicle id="1" pos="166.24" speed="14.03" posLat="0.00" speedLat="0.00"/>
            </lane>
            <person id="person3" pos="22.08" angle="90.00" stage="walking"/>
            <person id="person2" pos="24.90" angle="90.00" stage="walking"/>
            <person id="person1" pos="27.17" angle="90.00" stage="walking"/>
            <person id="person4" pos="27.65" angle="90.00" stage="walking"/>
            <person id="person0" pos="29.95" angle="90.00" stage="walking"/>
        </edge>
    </timestep>
    <timestep time="23.00">
        <edge id="beg">
            <lane id="beg_0"/>
            <lane id="beg_1">
                <vehicle id="5" pos="11.10" speed="3.00" posLat="0.00" speedLat="0.00"/>
                <vehicle id="3" pos="71.10" speed="11.00" posLat="0.00" speedLat="0.00"/>
                <vehicle id="0" pos="226.43" speed="13.03" posLat="0.00" speedLat="0.00"/>
            </lane>
            <lane id="beg_2">
                <vehicle id="4" pos="33.10" speed="7.00" posLat="0.00" speedLat="0.00"/>
                <vehicle id="2" pos="125.10" speed="15.00" posLat="0.00" speedLat="0.00"/>
                <vehicle id="1" pos="180.27" speed="14.03" posLat="0.00" speedLat="0.00"/>
            </lane>
            <person id="person3" pos="23.10" angle="90.00" stage="walking"/>
            <person id="person2" pos="26.13" angle="90.00" stage="walking"/>
            <person id="person1" pos="28.38" angle="90.00" stage="walking"/>
            <person id="person4" pos="28.97" angle="90.00" stage="walking"/>
            <person id="person0" pos="31.28" angle="90.00" stage="walking"/>
        </edge>
    </timestep>
    <timestep time="24.00">
        <edge id="beg">
            <lane id="beg_0"/>
            <lane id="beg_1">
                <vehicle id="6" pos="5.10" speed="0.00" posLat="0.00" speedLat="0.00"/>
                <vehicle id="5" pos="15.10" speed="4.00" posLat="0.00" speedLat="0.00"/>
                <vehicle id="3" pos="82.64" speed="11.54" posLat="0.00" speedLat="0.00"/>
                <vehicle id="0" pos="239.46" speed="13.03" posLat="0.00" speedLat="0.00"/>
            </lane>
            <lane id="beg_2">
                <vehicle id="4" pos="41.10" speed="8.00" posLat="0.00" speedLat="0.00"/>
                <vehicle id="2" pos="140.14" speed="15.04" posLat="0.00" speedLat="0.00"/>
                <vehicle id="1" pos="194.31" speed="14.03" posLat="0.00" speedLat="0.00"/>
            </lane>
            <person id="person3" pos="24.20" angle="90.00" stage="walking"/>
            <person id="person2" pos="27.20" angle="90.00" stage="walking"/>
            <person id="person1" pos="29.77" angle="90.00" stage="walking"/>
            <person id="person4" pos="30.26" angle="90.00" stage="walking"/>
            <person id="person0" pos="32.72" angle="90.00" stage="walking"/>
        </edge>
    </timestep>
    <timestep time="25.00">
        <edge id="beg">
            <lane id="beg_0"/>
            <lane id="beg_1">
                <vehicle id="6" pos="6.10" speed="1.00" posLat="0.00" speedLat="0.00"/>
                <vehicle id="5" pos="20.10" speed="5.00" posLat="0.00" speedLat="0.00"/>
                <vehicle id="3" pos="94.19" speed="11.54" posLat="0.00" speedLat="0.00"/>
                <vehicle id="0" pos="252.50" speed="13.03" posLat="0.00" speedLat="0.00"/>
            </lane>
            <lane id="beg_2">
                <vehicle id="4" pos="50.10" speed="9.00" posLat="0.00" speedLat="0.00"/>
                <vehicle id="2" pos="155.18" speed="15.04" posLat="0.00" speedLat="0.00"/>
                <vehicle id="1" pos="208.34" speed="14.03" posLat="0.00" speedLat="0.00"/>
            </lane>
            <person id="person3" pos="25.16" angle="90.00" stage="walking"/>
            <person id="person2" pos="28.33" angle="90.00" stage="walking"/>
            <person id="person1" pos="31.09" angle="90.00" stage="walking"/>
            <person id="person4" pos="31.77" angle="90.00" stage="walking"/>
            <person id="person0" pos="34.05" angle="90.00" stage="walking"/>
        </edge>
    </timestep>
    <timestep time="26.00">
        <edge id="beg">
            <lane id="beg_0"/>
            <lane id="beg_1">
                <vehicle id="6" pos="8.10" speed="2.00" posLat="0.00" speedLat="0.00"/>
                <vehicle id="5" pos="26.10" speed="6.00" posLat="0.00" speedLat="0.00"/>
                <vehicle id="3" pos="105.73" speed="11.54" posLat="0.00" speedLat="0.00"/>
                <vehicle id="0" pos="265.53" speed="13.03" posLat="0.00" speedLat="0.00"/>
            </lane>
            <lane id="beg_2">
                <vehicle id="4" pos="60.10" speed="10.00" posLat="0.00" speedLat="0.00"/>
                <vehicle id="2" pos="170.21" speed="15.04" posLat="-1.00" speedLat="-1.00"/>
                <vehicle id="1" pos="222.37" speed="14.03" posLat="0.00" speedLat="0.00"/>
            </lane>
            <person id="person3" pos="26.19" angle="90.00" stage="walking"/>
            <person id="person2" pos="29.54" angle="90.00" stage="walking"/>
            <person id="person1" pos="32.26" angle="90.00" stage="walking"/>
            <person id="person4" pos="33.23" angle="90.00" stage="walking"/>
            <person id="person0" pos="35.27" angle="90.00" stage="walking"/>
        </edge>
    </timestep>
    <timestep time="27.00">
        <edge id="beg">
            <lane id="beg_0"/>
            <lane id="beg_1">
                <vehicle id="6" pos="11.10" speed="3.00" posLat="1.00" speedLat="1.00"/>
                <vehicle id="5" pos="33.10" speed="7.00" posLat="0.00" speedLat="0.00"/>
                <vehicle id="3" pos="117.27" speed="11.54" posLat="0.00" speedLat="0.00"/>
                <vehicle id="2" pos="185.25" speed="15.04" posLat="1.20" speedLat="-1.00"/>
                <vehicle id="0" pos="278.56" speed="13.03" posLat="0.00" speedLat="0.00"/>
            </lane>
            <lane id="beg_2">
                <vehicle id="4" pos="71.10" speed="11.00" posLat="0.00" speedLat="0.00"/>
                <vehicle id="1" pos="236.41" speed="14.03" posLat="0.00" speedLat="0.00"/>
            </lane>
            <person id="person3" pos="27.22" angle="90.00" stage="walking"/>
            <person id="person2" pos="30.75" angle="90.00" stage="walking"/>
            <person id="person1" pos="33.61" angle="90.00" stage="walking"/>
            <person id="person4" pos="34.57" angle="90.00" stage="walking"/>
            <person id="person0" pos="36.62" angle="90.00" stage="walking"/>
        </edge>
    </timestep>
    <timestep time="28.00">
        <edge id="beg">
            <lane id="beg_0"/>
            <lane id="beg_1">
                <vehicle id="5" pos="41.10" speed="8.00" posLat="0.00" speedLat="0.00"/>
                <vehicle id="3" pos="128.82" speed="11.54" posLat="0.00" speedLat="0.00"/>
                <vehicle id="2" pos="200.29" speed="15.04" posLat="0.20" speedLat="-1.00"/>
                <vehicle id="0" pos="291.60" speed="13.03" posLat="0.00" speedLat="0.00"/>
            </lane>
            <lane id="beg_2">
                <vehicle id="6" pos="15.10" speed="4.00" posLat="-1.20" speedLat="1.00"/>
                <vehicle id="4" pos="83.10" speed="12.00" posLat="0.00" speedLat="0.00"/>
                <vehicle id="1" pos="250.44" speed="14.03" posLat="0.00" speedLat="0.00"/>
            </lane>
            <person id="person3" pos="28.26" angle="90.00" stage="walking"/>
            <person id="person2" pos="31.83" angle="90.00" stage="walking"/>
            <person id="person1" pos="35.01" angle="90.00" stage="walking"/>
            <person id="person4" pos="35.91" angle="90.00" stage="walking"/>
            <person id="person0" pos="37.91" angle="90.00" stage="walking"/>
        </edge>
    </timestep>
    <timestep time="29.00">
        <edge id="beg">
            <lane id="beg_0"/>
            <lane id="beg_1">
                <vehicle id="7" pos="5.10" speed="0.00" posLat="0.00" speedLat="0.00"/>
                <vehicle id="5" pos="50.10" speed="9.00" posLat="0.00" speedLat="0.00"/>
                <vehicle id="3" pos="140.36" speed="11.54" posLat="0.00" speedLat="0.00"/>
                <vehicle id="2" pos="215.33" speed="15.04" posLat="0.00" speedLat="-0.20"/>