<?xml version="1.0" encoding="UTF-8"?>

<!-- generated on 10/20/20 16:06:19 by Eclipse SUMO GUI Version 1.7.0
<configuration xmlns:xsi="http://www.w3.org/2001/XMLSchema-instance" xsi:noNamespaceSchemaLocation="http://sumo.dlr.de/xsd/sumoConfiguration.xsd">

    <input>
        <net-file value="test/cross.net.xml"/>
        <route-files value="test/cross.rou.xml"/>
        <additional-files value="test/cross.det.xml"/>
    </input>

    <output>
        <tripinfo-output value="tripinfo.xml"/>
    </output>

    <time>
        <begin value="0"/>
    </time>

    <report>
        <verbose value="true"/>
        <no-step-log value="true"/>
    </report>

    <traci_server>
        <remote-port value="65140"/>
    </traci_server>

</configuration>
-->

<tripinfos xmlns:xsi="http://www.w3.org/2001/XMLSchema-instance" xsi:noNamespaceSchemaLocation="http://sumo.dlr.de/xsd/tripinfo_file.xsd">
    <tripinfo id="left_0" depart="0.00" departLane="52o_0" departPos="5.10" departSpeed="0.00" departDelay="0.00" arrival="88.00" arrivalLane="51i_0" arrivalPos="10.00" arrivalSpeed="12.04" duration="88.00" routeLength="1015.10" waitingTime="0.00" waitingCount="0" stopTime="0.00" timeLoss="14.49" rerouteNo="0" devices="tripinfo_left_0" vType="typeWE" speedFactor="1.06" vaporized=""/>
    <tripinfo id="right_2" depart="3.00" departLane="51o_0" departPos="5.10" departSpeed="0.00" departDelay="0.00" arrival="94.00" arrivalLane="52i_0" arrivalPos="10.00" arrivalSpeed="11.39" duration="91.00" routeLength="1015.10" waitingTime="0.00" waitingCount="0" stopTime="0.00" timeLoss="14.92" rerouteNo="0" devices="tripinfo_right_2" vType="typeWE" speedFactor="1.01" vaporized=""/>
    <tripinfo id="right_3" depart="8.00" departLane="51o_0" departPos="5.10" departSpeed="0.00" departDelay="4.00" arrival="96.00" arrivalLane="52i_0" arrivalPos="10.00" arrivalSpeed="12.22" duration="88.00" routeLength="1015.10" waitingTime="0.00" waitingCount="0" stopTime="0.00" timeLoss="14.92" rerouteNo="0" devices="tripinfo_right_3" vType="typeWE" speedFactor="1.08" vaporized=""/>
    <tripinfo id="left_1" depart="5.00" departLane="52o_0" departPos="5.10" departSpeed="0.00" departDelay="3.00" arrival="99.00" arrivalLane="51i_0" arrivalPos="10.00" arrivalSpeed="10.88" duration="94.00" routeLength="1015.10" waitingTime="0.00" waitingCount="0" stopTime="0.00" timeLoss="14.78" rerouteNo="0" devices="tripinfo_left_1" vType="typeWE" speedFactor="0.94" vaporized=""/>
    <tripinfo id="left_4" depart="10.00" departLane="52o_0" departPos="5.10" departSpeed="0.00" departDelay="4.00" arrival="101.00" arrivalLane="51i_0" arrivalPos="10.00" arrivalSpeed="11.71" duration="91.00" routeLength="1015.10" waitingTime="0.00" waitingCount="0" stopTime="0.00" timeLoss="15.73" rerouteNo="0" devices="tripinfo_left_4" vType="typeWE" speedFactor="1.03" vaporized=""/>
    <tripinfo id="left_6" depart="22.00" departLane="52o_0" departPos="5.10" departSpeed="0.00" departDelay="0.00" arrival="112.00" arrivalLane="51i_0" arrivalPos="10.00" arrivalSpeed="12.23" duration="90.00" routeLength="1015.10" waitingTime="0.00" waitingCount="0" stopTime="0.00" timeLoss="15.73" rerouteNo="0" devices="tripinfo_left_6" vType="typeWE" speedFactor="1.05" vaporized=""/>
    <tripinfo id="right_5" depart="13.00" departLane="51o_0" departPos="5.10" departSpeed="0.00" departDelay="4.00" arrival="114.00" arrivalLane="52i_0" arrivalPos="10.00" arrivalSpeed="9.40" duration="101.00" routeLength="1015.10" waitingTime="0.00" waitingCount="0" stopTime="0.00" timeLoss="14.53" rerouteNo="0" devices="tripinfo_right_5" vType="typeWE" speedFactor="0.83" vaporized=""/>
    <tripinfo id="left_7" depart="31.00" departLane="52o_0" departPos="5.10" departSpeed="0.00" departDelay="0.00" arrival="129.00" arrivalLane="51i_0" arrivalPos="10.00" arrivalSpeed="10.17" duration="98.00" routeLength="1015.10" waitingTime="0.00" waitingCount="0" stopTime="0.00" timeLoss="15.68" rerouteNo="0" devices="tripinfo_left_7" vType="typeWE" speedFactor="0.89" vaporized=""/>
    <tripinfo id="right_10" depart="42.00" departLane="51o_0" departPos="5.10" departSpeed="0.00" departDelay="0.00" arrival="129.00" arrivalLane="52i_0" arrivalPos="10.00" arrivalSpeed="12.56" duration="87.00" routeLength="1015.10" waitingTime="0.00" waitingCount="0" stopTime="0.00" timeLoss="14.38" rerouteNo="0" devices="tripinfo_right_10" vType="typeWE" speedFactor="1.09" vaporized=""/>
    <tripinfo id="left_8" depart="36.00" departLane="52o_0" departPos="5.10" departSpeed="0.00" departDelay="3.00" arrival="131.00" arrivalLane="51i_0" arrivalPos="10.00" arrivalSpeed="10.90" duration="95.00" routeLength="1015.10" waitingTime="0.00" waitingCount="0" stopTime="0.00" timeLoss="15.23" rerouteNo="0" devices="tripinfo_left_8" vType="typeWE" speedFactor="0.94" vaporized=""/>
    <tripinfo id="right_13" depart="55.00" departLane="51o_0" departPos="5.10" departSpeed="0.00" departDelay="0.00" arrival="140.00" arrivalLane="52i_0" arrivalPos="10.00" arrivalSpeed="12.90" duration="85.00" routeLength="1015.10" waitingTime="0.00" waitingCount="0" stopTime="0.00" timeLoss="13.90" rerouteNo="0" devices="tripinfo_right_13" vType="typeWE" speedFactor="1.12" vaporized=""/>
    <tripinfo id="left_9" depart="41.00" departLane="52o_0" departPos="5.10" departSpeed="0.00" departDelay="0.00" arrival="141.00" arrivalLane="51i_0" arrivalPos="10.00" arrivalSpeed="9.86" duration="100.00" routeLength="1015.10" waitingTime="0.00" waitingCount="0" stopTime="0.00" timeLoss="16.15" rerouteNo="0" devices="tripinfo_left_9" vType="typeWE" speedFactor="0.86" vaporized=""/>
    <tripinfo id="left_11" depart="46.00" departLane="52o_0" departPos="5.10" departSpeed="0.00" departDelay="1.00" arrival="143.00" arrivalLane="51i_0" arrivalPos="10.00" arrivalSpeed="10.55" duration="97.00" routeLength="1015.10" waitingTime="0.00" waitingCount="0" stopTime="0.00" timeLoss="21.51" rerouteNo="0" devices="tripinfo_left_11" vType="typeWE" speedFactor="1.03" vaporized=""/>
    <tripinfo id="left_12" depart="53.00" departLane="52o_0" departPos="5.10" departSpeed="0.00" departDelay="0.00" arrival="144.00" arrivalLane="51i_0" arrivalPos="10.00" arrivalSpeed="10.70" duration="91.00" routeLength="1015.10" waitingTime="0.00" waitingCount="0" stopTime="0.00" timeLoss="17.08" rerouteNo="0" devices="tripinfo_left_12" vType="typeWE" speedFactor="1.05" vaporized=""/>
    <tripinfo id="right_14" depart="61.00" departLane="51o_0" departPos="5.10" departSpeed="0.00" departDelay="0.00" arrival="154.00" arrivalLane="52i_0" arrivalPos="10.00" arrivalSpeed="11.15" duration="93.00" routeLength="1015.10" waitingTime="0.00" waitingCount="0" stopTime="0.00" timeLoss="16.20" rerouteNo="0" devices="tripinfo_right_14" vType="typeWE" speedFactor="0.99" vaporized=""/>
    <tripinfo id="right_15" depart="69.00" departLane="51o_0" departPos="5.10" departSpeed="0.00" departDelay="0.00" arrival="163.00" arrivalLane="52i_0" arrivalPos="10.00" arrivalSpeed="10.40" duration="94.00" routeLength="1015.10" waitingTime="0.00" waitingCount="0" stopTime="0.00" timeLoss="14.30" rerouteNo="0" devices="tripinfo_right_15" vType="typeWE" speedFactor="0.93" vaporized=""/>
    <tripinfo id="left_17" depart="85.00" departLane="52o_0" departPos="5.10" departSpeed="0.00" departDelay="0.00" arrival="181.00" arrivalLane="51i_0" arrivalPos="10.00" arrivalSpeed="10.87" duration="96.00" routeLength="1015.10" waitingTime="0.00" waitingCount="0" stopTime="0.00" timeLoss="16.55" rerouteNo="0" devices="tripinfo_left_17" vType="typeWE" speedFactor="0.94" vaporized=""/>
    <tripinfo id="right_16" depart="84.00" departLane="51o_0" departPos="5.10" departSpeed="0.00" departDelay="0.00" arrival="182.00" arrivalLane="52i_0" arrivalPos="10.00" arrivalSpeed="10.10" duration="98.00" routeLength="1015.10" waitingTime="0.00" waitingCount="0" stopTime="0.00" timeLoss="15.73" rerouteNo="0" devices="tripinfo_right_16" vType="typeWE" speedFactor="0.88" vaporized=""/>
    <tripinfo id="down_18" depart="89.00" departLane="54o_0" departPos="7.10" departSpeed="0.00" departDelay="0.00" arrival="194.00" arrivalLane="53i_0" arrivalPos="10.00" arrivalSpeed="10.62" duration="105.00" routeLength="1013.10" waitingTime="1.00" waitingCount="1" stopTime="0.00" timeLoss="28.64" rerouteNo="0" devices="tripinfo_down_18" vType="typeNS" speedFactor="0.94" vaporized=""/>
    <tripinfo id="down_19" depart="96.00" departLane="54o_0" departPos="7.10" departSpeed="0.00" departDelay="0.00" arrival="196.00" arrivalLane="53i_0" arrivalPos="10.00" arrivalSpeed="11.41" duration="100.00" routeLength="1013.10" waitingTime="0.00" waitingCount="0" stopTime="0.00" timeLoss="38.25" rerouteNo="0" devices="tripinfo_down_19" vType="typeNS" speedFactor="1.16" vaporized=""/>
    <tripinfo id="down_24" depart="122.00" departLane="54o_0" departPos="7.10" departSpeed="0.00" departDelay="0.00" arrival="224.00" arrivalLane="53i_0" arrivalPos="10.00" arrivalSpeed="9.51" duration="102.00" routeLength="1013.10" waitingTime="0.00" waitingCount="0" stopTime="0.00" timeLoss="14.90" rerouteNo="0" devices="tripinfo_down_24" vType="typeNS" speedFactor="0.83" vaporized=""/>
    <tripinfo id="right_20" depart="101.00" departLane="51o_0" departPos="5.10" departSpeed="0.00" departDelay="2.00" arrival="227.00" arrivalLane="52i_0" arrivalPos="10.00" arrivalSpeed="11.00" duration="126.00" routeLength="1015.10" waitingTime="26.00" waitingCount="1" stopTime="0.00" timeLoss="50.80" rerouteNo="0" devices="tripinfo_right_20" vType="typeWE" speedFactor="1.02" vaporized=""/>
    <tripinfo id="left_21" depart="99.00" departLane="52o_0" departPos="5.10" departSpeed="0.00" departDelay="0.00" arrival="228.00" arrivalLane="51i_0" arrivalPos="10.00" arrivalSpeed="11.55" duration="129.00" routeLength="1015.10" waitingTime="29.00" waitingCount="1" stopTime="0.00" timeLoss="53.44" rerouteNo="0" devices="tripinfo_left_21" vType="typeWE" speedFactor="1.01" vaporized=""/>
    <tripinfo id="right_22" depart="108.00" departLane="51o_0" departPos="5.10" departSpeed="0.00" departDelay="0.00" arrival="232.00" arrivalLane="52i_0" arrivalPos="10.00" arrivalSpeed="11.04" duration="124.00" routeLength="1015.10" waitingTime="19.00" waitingCount="1" stopTime="0.00" timeLoss="46.32" rerouteNo="0" devices="tripinfo_right_22" vType="typeWE" speedFactor="0.98" vaporized=""/>
    <tripinfo id="left_26" depart="131.00" departLane="52o_0" departPos="5.10" departSpeed="0.00" departDelay="0.00" arrival="234.00" arrivalLane="51i_0" arrivalPos="10.00" arrivalSpeed="10.60" duration="103.00" routeLength="1015.10" waitingTime="0.00" waitingCount="0" stopTime="0.00" timeLoss="22.69" rerouteNo="0" devices="tripinfo_left_26" vType="typeWE" speedFactor="0.92" vaporized=""/>
    <tripinfo id="left_27" depart="136.00" departLane="52o_0" departPos="5.10" departSpeed="0.00" departDelay="1.00" arrival="236.00" arrivalLane="51i_0" arrivalPos="10.00" arrivalSpeed="10.67" duration="100.00" routeLength="1015.10" waitingTime="0.00" waitingCount="0" stopTime="0.00" timeLoss="21.11" rerouteNo="0" devices="tripinfo_left_27" vType="typeWE" speedFactor="0.95" vaporized=""/>
    <tripinfo id="left_28" depart="141.00" departLane="52o_0" departPos="5.10" departSpeed="0.00" departDelay="3.00" arrival="237.00" arrivalLane="51i_0" arrivalPos="10.00" arrivalSpeed="10.85" duration="96.00" routeLength="1015.10" waitingTime="0.00" waitingCount="0" stopTime="0.00" timeLoss="25.32" rerouteNo="0" devices="tripinfo_left_28" vType="typeWE" speedFactor="1.13" vaporized=""/>
    <tripinfo id="right_23" depart="114.00" departLane="51o_0" departPos="5.10" departSpeed="0.00" departDelay="0.00" arrival="238.00" arrivalLane="52i_0" arrivalPos="10.00" arrivalSpeed="10.11" duration="124.00" routeLength="1015.10" waitingTime="15.00" waitingCount="1" stopTime="0.00" timeLoss="42.01" rerouteNo="0" devices="tripinfo_right_23" vType="typeWE" speedFactor="0.89" vaporized=""/>
    <tripinfo id="right_25" depart="125.00" departLane="51o_0" departPos="5.10" departSpeed="0.00" departDelay="0.00" arrival="241.00" arrivalLane="52i_0" arrivalPos="10.00" arrivalSpeed="9.78" duration="116.00" routeLength="1015.10" waitingTime="6.00" waitingCount="1" stopTime="0.00" timeLoss="33.20" rerouteNo="0" devices="tripinfo_right_25" vType="typeWE" speedFactor="0.87" vaporized=""/>
    <tripinfo id="left_29" depart="146.00" departLane="52o_0" departPos="5.10" departSpeed="0.00" departDelay="4.00" arrival="242.00" arrivalLane="51i_0" arrivalPos="10.00" arrivalSpeed="10.60" duration="96.00" routeLength="1015.10" waitingTime="0.00" waitingCount="0" stopTime="0.00" timeLoss="16.28" rerouteNo="0" devices="tripinfo_left_29" vType="typeWE" speedFactor="0.93" vaporized=""/>
    <tripinfo id="right_30" depart="145.00" departLane="51o_0" departPos="5.10" departSpeed="0.00" departDelay="0.00" arrival="243.00" arrivalLane="52i_0" arrivalPos="10.00" arrivalSpeed="10.50" duration="98.00" routeLength="1015.10" waitingTime="0.00" waitingCount="0" stopTime="0.00" timeLoss="28.42" rerouteNo="0" devices="tripinfo_right_30" vType="typeWE" speedFactor="1.18" vaporized=""/>
    <tripinfo id="left_31" depart="154.00" departLane="52o_0" departPos="5.10" departSpeed="0.00" departDelay="1.00" arrival="244.00" arrivalLane="51i_0" arrivalPos="10.00" arrivalSpeed="11.04" duration="90.00" routeLength="1015.10" waitingTime="0.00" waitingCount="0" stopTime="0.00" timeLoss="19.67" rerouteNo="0" devices="tripinfo_left_31" vType="typeWE" speedFactor="1.15" vaporized=""/>
    <tripinfo id="left_32" depart="159.00" departLane="52o_0" departPos="5.10" departSpeed="0.00" departDelay="3.00" arrival="250.00" arrivalLane="51i_0" arrivalPos="10.00" arrivalSpeed="11.57" duration="91.00" routeLength="1015.10" waitingTime="0.00" waitingCount="0" stopTime="0.00" timeLoss="14.74" rerouteNo="0" devices="tripinfo_left_32" vType="typeWE" speedFactor="1.01" vaporized=""/>
    <tripinfo id="left_33" depart="164.00" departLane="52o_0" departPos="5.10" departSpeed="0.00" departDelay="4.00" arrival="251.00" arrivalLane="51i_0" arrivalPos="10.00" arrivalSpeed="11.61" duration="87.00" routeLength="1015.10" waitingTime="0.00" waitingCount="0" stopTime="0.00" timeLoss="17.70" rerouteNo="0" devices="tripinfo_left_33" vType="typeWE" speedFactor="1.17" vaporized=""/>
    <tripinfo id="right_35" depart="167.00" departLane="51o_0" departPos="5.10" departSpeed="0.00" departDelay="0.00" arrival="258.00" arrivalLane="52i_0" arrivalPos="10.00" arrivalSpeed="11.83" duration="91.00" routeLength="1015.10" waitingTime="0.00" waitingCount="0" stopTime="0.00" timeLoss="15.45" rerouteNo="0" devices="tripinfo_right_35" vType="typeWE" speedFactor="1.02" vaporized=""/>
    <tripinfo id="left_34" depart="169.00" departLane="52o_0" departPos="5.10" departSpeed="0.00" departDelay="5.00" arrival="260.00" arrivalLane="51i_0" arrivalPos="10.00" arrivalSpeed="11.39" duration="91.00" routeLength="1015.10" waitingTime="0.00" waitingCount="0" stopTime="0.00" timeLoss="14.58" rerouteNo="0" devices="tripinfo_left_34" vType="typeWE" speedFactor="0.99" vaporized=""/>
    <tripinfo id="down_39" depart="172.00" departLane="54o_0" departPos="7.10" departSpeed="0.00" departDelay="0.00" arrival="281.00" arrivalLane="53i_0" arrivalPos="10.00" arrivalSpeed="10.45" duration="109.00" routeLength="1013.10" waitingTime="2.00" waitingCount="1" stopTime="0.00" timeLoss="29.51" rerouteNo="0" devices="tripinfo_down_39" vType="typeNS" speedFactor="0.90" vaporized=""/>
    <tripinfo id="left_37" depart="174.00" departLane="52o_0" departPos="5.10" departSpeed="0.00" departDelay="5.00" arrival="308.00" arrivalLane="51i_0" arrivalPos="10.00" arrivalSpeed="13.10" duration="134.00" routeLength="1015.10" waitingTime="38.00" waitingCount="1" stopTime="0.00" timeLoss="64.89" rerouteNo="0" devices="tripinfo_left_37" vType="typeWE" speedFactor="1.18" vaporized=""/>
    <tripinfo id="left_38" depart="179.00" departLane="52o_0" departPos="5.10" departSpeed="0.00" departDelay="7.00" arrival="312.00" arrivalLane="51i_0" arrivalPos="10.00" arrivalSpeed="12.48" duration="133.00" routeLength="1015.10" waitingTime="32.00" waitingCount="1" stopTime="0.00" timeLoss="61.27" rerouteNo="0" devices="tripinfo_left_38" vType="typeWE" speedFactor="1.10" vaporized=""/>
    <tripinfo id="right_36" depart="172.00" departLane="51o_0" departPos="5.10" departSpeed="0.00" departDelay="4.00" arrival="314.00" arrivalLane="52i_0" arrivalPos="10.00" arrivalSpeed="10.65" duration="142.00" routeLength="1015.10" waitingTime="40.00" waitingCount="1" stopTime="0.00" timeLoss="64.85" rerouteNo="0" devices="tripinfo_right_36" vType="typeWE" speedFactor="0.97" vaporized=""/>
    <tripinfo id="right_40" depart="177.00" departLane="51o_0" departPos="5.10" departSpeed="0.00" departDelay="1.00" arrival="316.00" arrivalLane="52i_0" arrivalPos="10.00" arrivalSpeed="11.80" duration="139.00" routeLength="1015.10" waitingTime="35.00" waitingCount="1" stopTime="0.00" timeLoss="64.39" rerouteNo="0" devices="tripinfo_right_40" vType="typeWE" speedFactor="1.03" vaporized=""/>
    <tripinfo id="left_43" depart="194.00" departLane="52o_0" departPos="5.10" departSpeed="0.00" departDelay="0.00" arrival="317.00" arrivalLane="51i_0" arrivalPos="10.00" arrivalSpeed="11.90" duration="123.00" routeLength="1015.10" waitingTime="19.00" waitingCount="1" stopTime="0.00" timeLoss="48.68" rerouteNo="0" devices="tripinfo_left_43" vType="typeWE" speedFactor="1.04" vaporized=""/>
    <tripinfo id="left_44" depart="199.00" departLane="52o_0" departPos="5.10" departSpeed="0.00" departDelay="3.00" arrival="319.00" arrivalLane="51i_0" arrivalPos="10.00" arrivalSpeed="11.88" duration="120.00" routeLength="1015.10" waitingTime="17.00" waitingCount="1" stopTime="0.00" timeLoss="45.81" rerouteNo="0" devices="tripinfo_left_44" vType="typeWE" speedFactor="1.04" vaporized=""/>
    <tripinfo id="right_41" depart="182.00" departLane="51o_0" departPos="5.10" departSpeed="0.00" departDelay="1.00" arrival="320.00" arrivalLane="52i_0" arrivalPos="10.00" arrivalSpeed="10.95" duration="138.00" routeLength="1015.10" waitingTime="33.00" waitingCount="1" stopTime="0.00" timeLoss="59.58" rerouteNo="0" devices="tripinfo_right_41" vType="typeWE" speedFactor="0.96" vaporized=""/>
    <tripinfo id="right_42" depart="187.00" departLane="51o_0" departPos="5.10" departSpeed="0.00" departDelay="4.00" arrival="321.00" arrivalLane="52i_0" arrivalPos="10.00" arrivalSpeed="11.20" duration="134.00" routeLength="1015.10" waitingTime="30.00" waitingCount="1" stopTime="0.00" timeLoss="62.07" rerouteNo="0" devices="tripinfo_right_42" vType="typeWE" speedFactor="1.09" vaporized=""/>
    <tripinfo id="left_45" depart="204.00" departLane="52o_0" departPos="5.10" departSpeed="0.00" departDelay="5.00" arrival="321.00" arrivalLane="51i_0" arrivalPos="10.00" arrivalSpeed="12.48" duration="117.00" routeLength="1015.10" waitingTime="13.00" waitingCount="1" stopTime="0.00" timeLoss="44.24" rerouteNo="0" devices="tripinfo_left_45" vType="typeWE" speedFactor="1.09" vaporized=""/>
    <tripinfo id="right_46" depart="200.00" departLane="51o_0" departPos="5.10" departSpeed="0.00" departDelay="0.00" arrival="323.00" arrivalLane="52i_0" arrivalPos="10.00" arrivalSpeed="11.68" duration="123.00" routeLength="1015.10" waitingTime="18.00" waitingCount="1" stopTime="0.00" timeLoss="46.84" rerouteNo="0" devices="tripinfo_right_46" vType="typeWE" speedFactor="1.00" vaporized=""/>
    <tripinfo id="left_47" depart="212.00" departLane="52o_0" departPos="5.10" departSpeed="0.00" departDelay="0.00" arrival="329.00" arrivalLane="51i_0" arrivalPos="10.00" arrivalSpeed="10.43" duration="117.00" routeLength="1015.10" waitingTime="5.00" waitingCount="1" stopTime="0.00" timeLoss="35.89" rerouteNo="0" devices="tripinfo_left_47" vType="typeWE" speedFactor="0.90" vaporized=""/>
    <tripinfo id="right_48" depart="217.00" departLane="51o_0" departPos="5.10" departSpeed="0.00" departDelay="0.00" arrival="329.00" arrivalLane="52i_0" arrivalPos="10.00" arrivalSpeed="10.23" duration="112.00" routeLength="1015.10" waitingTime="2.00" waitingCount="1" stopTime="0.00" timeLoss="29.72" rerouteNo="0" devices="tripinfo_right_48" vType="typeWE" speedFactor="0.88" vaporized=""/>
    <tripinfo id="right_50" depart="228.00" departLane="51o_0" departPos="5.10" departSpeed="0.00" departDelay="0.00" arrival="332.00" arrivalLane="52i_0" arrivalPos="10.00" arrivalSpeed="10.02" duration="104.00" routeLength="1015.10" waitingTime="0.00" waitingCount="0" stopTime="0.00" timeLoss="20.48" rerouteNo="0" devices="tripinfo_right_50" vType="typeWE" speedFactor="0.85" vaporized=""/>
    <tripinfo id="left_49" depart="219.00" departLane="52o_0" departPos="5.10" departSpeed="0.00" departDelay="0.00" arrival="334.00" arrivalLane="51i_0" arrivalPos="10.00" arrivalSpeed="9.71" duration="115.00" routeLength="1015.10" waitingTime="0.00" waitingCount="0" stopTime="0.00" timeLoss="30.26" rerouteNo="0" devices="tripinfo_left_49" vType="typeWE" speedFactor="0.85" vaporized=""/>
    <tripinfo id="right_53" depart="244.00" departLane="51o_0" departPos="5.10" departSpeed="0.00" departDelay="4.00" arrival="334.00" arrivalLane="52i_0" arrivalPos="10.00" arrivalSpeed="10.69" duration="90.00" routeLength="1015.10" waitingTime="0.00" waitingCount="0" stopTime="0.00" timeLoss="18.09" rerouteNo="0" devices="tripinfo_right_53" vType="typeWE" speedFactor="1.10" vaporized=""/>
    <tripinfo id="left_51" depart="234.00" departLane="52o_0" departPos="5.10" departSpeed="0.00" departDelay="0.00" arrival="336.00" arrivalLane="51i_0" arrivalPos="10.00" arrivalSpeed="10.22" duration="102.00" routeLength="1015.10" waitingTime="0.00" waitingCount="0" stopTime="0.00" timeLoss="32.07" rerouteNo="0" devices="tripinfo_left_51" vType="typeWE" speedFactor="1.17" vaporized=""/>
    <tripinfo id="left_52" depart="239.00" departLane="52o_0" departPos="5.10" departSpeed="0.00" departDelay="1.00" arrival="337.00" arrivalLane="51i_0" arrivalPos="10.00" arrivalSpeed="10.31" duration="98.00" routeLength="1015.10" waitingTime="0.00" waitingCount="0" stopTime="0.00" timeLoss="22.85" rerouteNo="0" devices="tripinfo_left_52" vType="typeWE" speedFactor="1.02" vaporized=""/>
    <tripinfo id="left_54" depart="272.00" departLane="52o_0" departPos="5.10" departSpeed="0.00" departDelay="0.00" arrival="363.00" arrivalLane="51i_0" arrivalPos="10.00" arrivalSpeed="11.07" duration="91.00" routeLength="1015.10" waitingTime="0.00" waitingCount="0" stopTime="0.00" timeLoss="15.21" rerouteNo="0" devices="tripinfo_left_54" vType="typeWE" speedFactor="1.00" vaporized=""/>
    <tripinfo id="left_55" depart="277.00" departLane="52o_0" departPos="5.10" departSpeed="0.00" departDelay="2.00" arrival="368.00" arrivalLane="51i_0" arrivalPos="10.00" arrivalSpeed="11.66" duration="91.00" routeLength="1015.10" waitingTime="0.00" waitingCount="0" stopTime="0.00" timeLoss="14.86" rerouteNo="0" devices="tripinfo_left_55" vType="typeWE" speedFactor="1.00" vaporized=""/>
    <tripinfo id="right_56" depart="284.00" departLane="51o_0" departPos="5.10" departSpeed="0.00" departDelay="0.00" arrival="381.00" arrivalLane="52i_0" arrivalPos="10.00" arrivalSpeed="10.24" duration="97.00" routeLength="1015.10" waitingTime="0.00" waitingCount="0" stopTime="0.00" timeLoss="15.95" rerouteNo="0" devices="tripinfo_right_56" vType="typeWE" speedFactor="0.90" vaporized=""/>
    <tripinfo id="right_57" depart="289.00" departLane="51o_0" departPos="5.10" departSpeed="0.00" departDelay="3.00" arrival="383.00" arrivalLane="52i_0" arrivalPos="10.00" arrivalSpeed="10.77" duration="94.00" routeLength="1015.10" waitingTime="0.00" waitingCount="0" stopTime="0.00" timeLoss="23.48" rerouteNo="0" devices="tripinfo_right_57" vType="typeWE" speedFactor="1.14" vaporized=""/>
    <tripinfo id="right_58" depart="294.00" departLane="51o_0" departPos="5.10" departSpeed="0.00" departDelay="6.00" arrival="385.00" arrivalLane="52i_0" arrivalPos="10.00" arrivalSpeed="11.73" duration="91.00" routeLength="1015.10" waitingTime="0.00" waitingCount="0" stopTime="0.00" timeLoss="15.44" rerouteNo="0" devices="tripinfo_right_58" vType="typeWE" speedFactor="1.02" vaporized=""/>
    <tripinfo id="right_59" depart="299.00" departLane="51o_0" departPos="5.10" departSpeed="0.00" departDelay="8.00" arrival="392.00" arrivalLane="52i_0" arrivalPos="10.00" arrivalSpeed="11.21" duration="93.00" routeLength="1015.10" waitingTime="0.00" waitingCount="0" stopTime="0.00" timeLoss="15.50" rerouteNo="0" devices="tripinfo_right_59" vType="typeWE" speedFactor="0.97" vaporized=""/>
    <tripinfo id="right_60" depart="304.00" departLane="51o_0" departPos="5.10" departSpeed="0.00" departDelay="10.00" arrival="394.00" arrivalLane="52i_0" arrivalPos="10.00" arrivalSpeed="11.91" duration="90.00" routeLength="1015.10" waitingTime="0.00" waitingCount="0" stopTime="0.00" timeLoss="16.97" rerouteNo="0" devices="tripinfo_right_60" vType="typeWE" speedFactor="1.08" vaporized=""/>
    <tripinfo id="down_61" depart="318.00" departLane="54o_0" departPos="7.10" departSpeed="0.00" departDelay="0.00" arrival="416.00" arrivalLane="53i_0" arrivalPos="10.00" arrivalSpeed="12.64" duration="98.00" routeLength="1013.10" waitingTime="1.00" waitingCount="1" stopTime="0.00" timeLoss="34.22" rerouteNo="0" devices="tripinfo_down_61" vType="typeNS" speedFactor="1.12" vaporized=""/>
    <tripinfo id="down_63" depart="331.00" departLane="54o_0" departPos="7.10" departSpeed="0.00" departDelay="0.00" arrival="422.00" arrivalLane="53i_0" arrivalPos="10.00" arrivalSpeed="10.78" duration="91.00" routeLength="1013.10" waitingTime="0.00" waitingCount="0" stopTime="0.00" timeLoss="18.48" rerouteNo="0" devices="tripinfo_down_63" vType="typeNS" speedFactor="0.99" vaporized=""/>
    <tripinfo id="down_64" depart="337.00" departLane="54o_0" departPos="7.10" departSpeed="0.00" departDelay="0.00" arrival="431.00" arrivalLane="53i_0" arrivalPos="10.00" arrivalSpeed="10.95" duration="94.00" routeLength="1013.10" waitingTime="0.00" waitingCount="0" stopTime="0.00" timeLoss="17.03" rerouteNo="0" devices="tripinfo_down_64" vType="typeNS" speedFactor="0.94" vaporized=""/>
    <tripinfo id="down_68" depart="344.00" departLane="54o_0" departPos="7.10" departSpeed="0.00" departDelay="0.00" arrival="433.00" arrivalLane="53i_0" arrivalPos="10.00" arrivalSpeed="11.55" duration="89.00" routeLength="1013.10" waitingTime="0.00" waitingCount="0" stopTime="0.00" timeLoss="19.87" rerouteNo="0" devices="tripinfo_down_68" vType="typeNS" speedFactor="1.04" vaporized=""/>
    <tripinfo id="right_62" depart="322.00" departLane="51o_0" departPos="5.10" departSpeed="0.00" departDelay="0.00" arrival="456.00" arrivalLane="52i_0" arrivalPos="10.00" arrivalSpeed="11.28" duration="134.00" routeLength="1015.10" waitingTime="30.00" waitingCount="1" stopTime="0.00" timeLoss="58.74" rerouteNo="0" devices="tripinfo_right_62" vType="typeWE" speedFactor="1.02" vaporized=""/>
    <tripinfo id="left_65" depart="339.00" departLane="52o_0" departPos="5.10" departSpeed="0.00" departDelay="0.00" arrival="462.00" arrivalLane="51i_0" arrivalPos="10.00" arrivalSpeed="10.51" duration="123.00" routeLength="1015.10" waitingTime="16.00" waitingCount="1" stopTime="0.00" timeLoss="41.07" rerouteNo="0" devices="tripinfo_left_65" vType="typeWE" speedFactor="0.88" vaporized=""/>
    <tripinfo id="right_66" depart="342.00" departLane="51o_0" departPos="5.10" departSpeed="0.00" departDelay="0.00" arrival="463.00" arrivalLane="52i_0" arrivalPos="10.00" arrivalSpeed="10.53" duration="121.00" routeLength="1015.10" waitingTime="14.00" waitingCount="1" stopTime="0.00" timeLoss="40.40" rerouteNo="0" devices="tripinfo_right_66" vType="typeWE" speedFactor="0.91" vaporized=""/>
    <tripinfo id="left_67" depart="344.00" departLane="52o_0" departPos="5.10" departSpeed="0.00" departDelay="0.00" arrival="464.00" arrivalLane="51i_0" arrivalPos="10.00" arrivalSpeed="10.61" duration="120.00" routeLength="1015.10" waitingTime="11.00" waitingCount="1" stopTime="0.00" timeLoss="39.77" rerouteNo="0" devices="tripinfo_left_67" vType="typeWE" speedFactor="0.91" vaporized=""/>
    <tripinfo id="right_70" depart="354.00" departLane="51o_0" departPos="5.10" departSpeed="0.00" departDelay="0.00" arrival="465.00" arrivalLane="52i_0" arrivalPos="10.00" arrivalSpeed="10.71" duration="111.00" routeLength="1015.10" waitingTime="3.00" waitingCount="1" stopTime="0.00" timeLoss="35.89" rerouteNo="0" devices="tripinfo_right_70" vType="typeWE" speedFactor="1.02" vaporized=""/>
    <tripinfo id="left_69" depart="349.00" departLane="52o_0" departPos="5.10" departSpeed="0.00" departDelay="3.00" arrival="466.00" arrivalLane="51i_0" arrivalPos="10.00" arrivalSpeed="11.14" duration="117.00" routeLength="1015.10" waitingTime="7.00" waitingCount="1" stopTime="0.00" timeLoss="41.77" rerouteNo="0" devices="tripinfo_left_69" vType="typeWE" speedFactor="1.02" vaporized=""/>
    <tripinfo id="right_71" depart="375.00" departLane="51o_0" departPos="5.10" departSpeed="0.00" departDelay="0.00" arrival="468.00" arrivalLane="52i_0" arrivalPos="10.00" arrivalSpeed="11.10" duration="93.00" routeLength="1015.10" waitingTime="0.00" waitingCount="0" stopTime="0.00" timeLoss="15.29" rerouteNo="0" devices="tripinfo_right_71" vType="typeWE" speedFactor="0.97" vaporized=""/>
    <tripinfo id="down_72" depart="377.00" departLane="54o_0" departPos="7.10" departSpeed="0.00" departDelay="0.00" arrival="484.00" arrivalLane="53i_0" arrivalPos="10.00" arrivalSpeed="10.86" duration="107.00" routeLength="1013.10" waitingTime="3.00" waitingCount="1" stopTime="0.00" timeLoss="31.15" rerouteNo="0" devices="tripinfo_down_72" vType="typeNS" speedFactor="0.94" vaporized=""/>